ITEM: TIMESTEP
100183
ITEM: NUMBER OF ATOMS
108000
ITEM: BOX BOUNDS pp pp pp
-53.3244 53.3244
-53.3244 53.3244
-53.3244 53.3244
ITEM: ATOMS id type x y z 
3 1 -50.6147 -52.4344 -50.6603 
4 1 -52.4429 -50.6403 -50.6501 
2 2 -50.6969 -50.7147 -52.4484 
1 1 -52.4461 -52.4662 -52.4377 
8 2 -48.8337 -50.6449 -50.7052 
5 2 -48.9167 -52.4232 -52.4799 
6 1 -47.0898 -50.6639 -52.4641 
7 1 -47.1133 -52.4409 -50.7312 
12 1 -45.3195 -50.6599 -50.6986 
10 1 -43.5231 -50.6653 -52.4948 
11 1 -43.5313 -52.421 -50.7072 
9 2 -45.3135 -52.44 -52.498 
16 2 -41.8119 -50.6468 -50.6167 
20 1 -38.1888 -50.6648 -50.6729 
15 2 -39.9438 -52.4472 -50.6751 
14 2 -39.959 -50.6719 -52.4257 
17 1 -38.1625 -52.4199 -52.4087 
13 2 -41.736 -52.4283 -52.5269 
19 2 -36.4117 -52.4353 -50.6341 
24 1 -34.6709 -50.6505 -50.6762 
18 2 -36.443 -50.601 -52.4429 
21 2 -34.6589 -52.4355 -52.393 
28 2 -31.1154 -50.6273 -50.6721 
22 2 -32.8942 -50.6067 -52.4111 
23 1 -32.8454 -52.4405 -50.6735 
25 2 -31.1163 -52.4579 -52.46 
32 1 -27.5486 -50.6299 -50.7498 
27 1 -29.3792 -52.4106 -50.6785 
26 2 -29.3506 -50.698 -52.4682 
29 2 -27.5521 -52.5031 -52.4374 
36 2 -23.9786 -50.6245 -50.6134 
31 1 -25.7637 -52.3913 -50.6765 
33 2 -23.9851 -52.456 -52.4185 
30 2 -25.7189 -50.6615 -52.4533 
40 1 -20.4516 -50.6584 -50.6576 
37 1 -20.4617 -52.432 -52.4446 
35 1 -22.2534 -52.4108 -50.6303 
34 1 -22.271 -50.6606 -52.4657 
44 1 -16.8886 -50.6191 -50.7036 
39 1 -18.6556 -52.4247 -50.6649 
38 2 -18.7099 -50.6747 -52.4505 
41 1 -16.8869 -52.4394 -52.4359 
42 2 -15.0885 -50.7003 -52.4345 
46 2 -11.5081 -50.7248 -52.4498 
48 1 -13.2965 -50.6757 -50.6966 
47 1 -11.5339 -52.4652 -50.6763 
43 1 -15.1239 -52.4874 -50.6981 
45 1 -13.3239 -52.4888 -52.4553 
52 1 -9.78132 -50.6944 -50.6387 
51 2 -7.98298 -52.423 -50.6752 
49 1 -9.72988 -52.4683 -52.4883 
50 1 -7.98835 -50.6957 -52.4562 
56 1 -6.19603 -50.7106 -50.6272 
54 2 -4.46875 -50.7122 -52.4143 
55 1 -4.43742 -52.4609 -50.6187 
53 1 -6.22144 -52.4649 -52.4576 
58 2 -0.888326 -50.6538 -52.3978 
60 1 -2.67348 -50.6632 -50.6617 
59 1 -0.836796 -52.4888 -50.6674 
57 1 -2.63576 -52.4332 -52.4479 
63 1 -50.6379 -48.9164 -50.6766 
61 2 -52.4514 -48.8867 -52.4259 
62 2 -50.713 -47.1139 -52.3944 
64 1 -52.4617 -47.1326 -50.6516 
67 1 -47.0939 -48.8532 -50.6713 
68 2 -48.9005 -47.0858 -50.691 
65 1 -48.9184 -48.8691 -52.4367 
66 2 -47.0731 -47.1439 -52.4603 
71 1 -43.577 -48.8824 -50.6749 
72 2 -45.3405 -47.0947 -50.6889 
70 1 -43.5484 -47.1217 -52.4504 
69 2 -45.3012 -48.8821 -52.4813 
73 1 -41.744 -48.9305 -52.4481 
75 1 -40.0263 -48.8849 -50.6652 
77 1 -38.2263 -48.8563 -52.4397 
76 2 -41.7935 -47.1269 -50.6789 
80 1 -38.2541 -47.1008 -50.6818 
74 2 -40.0406 -47.1275 -52.4418 
79 1 -36.4231 -48.8418 -50.6796 
84 2 -34.6324 -47.0856 -50.6589 
81 1 -34.6561 -48.8405 -52.4787 
78 2 -36.4424 -47.0785 -52.4388 
83 2 -32.9055 -48.8625 -50.7045 
85 1 -31.1161 -48.8992 -52.4813 
88 1 -31.1119 -47.1022 -50.6599 
82 1 -32.8978 -47.0999 -52.4741 
87 2 -29.3515 -48.897 -50.7127 
86 2 -29.3443 -47.1283 -52.4189 
92 1 -27.5464 -47.1698 -50.7141 
89 2 -27.5233 -48.9027 -52.535 
91 2 -25.7136 -48.879 -50.6765 
96 1 -23.98 -47.101 -50.6655 
90 1 -25.7717 -47.1261 -52.448 
93 1 -23.972 -48.8875 -52.456 
95 1 -22.2177 -48.8615 -50.6467 
94 2 -22.214 -47.1083 -52.4622 
100 1 -20.4269 -47.0747 -50.6365 
97 1 -20.4544 -48.8836 -52.4426 
99 2 -18.7119 -48.9035 -50.6375 
98 1 -18.6817 -47.0979 -52.4166 
104 1 -16.8791 -47.1609 -50.6604 
101 2 -16.9139 -48.8698 -52.4701 
103 2 -15.0475 -48.9171 -50.6624 
107 1 -11.5175 -48.9214 -50.6627 
105 1 -13.3034 -48.8706 -52.452 
108 1 -13.3404 -47.1099 -50.6756 
106 2 -11.5029 -47.0791 -52.3867 
102 2 -15.1304 -47.0693 -52.4543 
111 1 -7.98531 -48.9098 -50.6467 
109 1 -9.7921 -48.9064 -52.4549 
112 1 -9.74866 -47.1089 -50.6423 
110 1 -7.98969 -47.1087 -52.4391 
115 1 -4.44166 -48.8778 -50.669 
113 1 -6.19359 -48.9036 -52.4203 
116 1 -6.21727 -47.1009 -50.6547 
114 2 -4.48256 -47.079 -52.4462 
119 2 -0.917231 -48.8937 -50.6319 
120 1 -2.65395 -47.112 -50.6815 
118 2 -0.819687 -47.1062 -52.4262 
117 1 -2.65998 -48.8753 -52.4295 
177 1 -2.62712 -45.3791 -52.4271 
123 1 -50.658 -45.3128 -50.6762 
183 1 -50.6409 -41.7368 -50.6679 
122 2 -50.7071 -43.5037 -52.4101 
124 1 -52.4498 -43.5195 -50.6419 
121 1 -52.4432 -45.3048 -52.4337 
181 1 -52.4556 -41.7313 -52.4702 
125 2 -48.8868 -45.3503 -52.4016 
127 1 -47.1052 -45.3467 -50.6864 
128 1 -48.8588 -43.5256 -50.7138 
185 2 -48.8746 -41.6958 -52.4117 
187 1 -47.0976 -41.7673 -50.6602 
126 2 -47.0358 -43.5258 -52.4374 
129 1 -45.3204 -45.3445 -52.4684 
131 2 -43.5746 -45.3521 -50.6989 
132 1 -45.3326 -43.5688 -50.6465 
189 2 -45.2891 -41.7597 -52.3959 
191 2 -43.6077 -41.7881 -50.6192 
130 1 -43.5567 -43.5386 -52.4276 
133 1 -41.7585 -45.3156 -52.4185 
135 1 -40.0274 -45.3384 -50.6708 
137 1 -38.2598 -45.3134 -52.415 
193 1 -41.7982 -41.7431 -52.3475 
136 2 -41.7923 -43.5683 -50.6294 
140 1 -38.2191 -43.4872 -50.6611 
195 2 -39.9848 -41.7272 -50.6586 
134 2 -40.0475 -43.4828 -52.389 
197 2 -38.2332 -41.781 -52.4603 
139 1 -36.4131 -45.317 -50.6695 
141 1 -34.6835 -45.2869 -52.4191 
144 2 -34.6581 -43.519 -50.6268 
199 2 -36.361 -41.7558 -50.6534 
138 2 -36.4791 -43.5348 -52.414 
201 1 -34.6727 -41.7732 -52.448 
143 1 -32.8866 -45.295 -50.6183 
145 2 -31.1731 -45.3309 -52.4194 
148 1 -31.1127 -43.5693 -50.6653 
203 1 -32.8888 -41.7755 -50.652 
142 2 -32.8891 -43.552 -52.4136 
205 1 -31.1034 -41.7574 -52.4238 
147 1 -29.3007 -45.3269 -50.7104 
149 2 -27.4816 -45.3124 -52.4506 
152 2 -27.5636 -43.5462 -50.7169 
207 2 -29.3963 -41.8041 -50.6351 
146 2 -29.3203 -43.5324 -52.4326 
209 1 -27.615 -41.7263 -52.4339 
151 1 -25.7888 -45.3193 -50.6477 
153 1 -23.9812 -45.3508 -52.4499 
211 1 -25.7632 -41.7867 -50.6555 
156 2 -23.9833 -43.6139 -50.6544 
150 1 -25.7438 -43.5413 -52.426 
213 2 -24.0196 -41.7658 -52.4198 
155 1 -22.2053 -45.3476 -50.6563 
157 2 -20.4751 -45.3637 -52.4671 
154 1 -22.2401 -43.5509 -52.4463 
215 1 -22.2467 -41.7996 -50.6763 
160 1 -20.4336 -43.6001 -50.6851 
217 2 -20.4639 -41.7845 -52.4281 
159 2 -18.6188 -45.328 -50.6461 
161 1 -16.8991 -45.3152 -52.4387 
219 2 -18.7279 -41.792 -50.6499 
158 1 -18.7061 -43.5727 -52.4468 
164 1 -16.899 -43.5105 -50.6479 
221 1 -16.92 -41.7701 -52.434 
163 1 -15.1019 -45.3362 -50.6625 
167 1 -11.5401 -45.2916 -50.628 
165 1 -13.3143 -45.3005 -52.4467 
223 2 -15.0662 -41.7648 -50.7017 
162 2 -15.1505 -43.5267 -52.3938 
168 1 -13.3008 -43.5282 -50.6317 
227 1 -11.5019 -41.7932 -50.6283 
166 2 -11.4839 -43.5298 -52.3931 
225 1 -13.3196 -41.8187 -52.4528 
171 2 -7.99194 -45.3527 -50.6799 
169 1 -9.75357 -45.3165 -52.4264 
172 1 -9.72056 -43.5133 -50.6242 
231 2 -7.98995 -41.7215 -50.6921 
229 2 -9.74881 -41.7763 -52.4443 
170 1 -7.96654 -43.5308 -52.4382 
175 1 -4.43439 -45.316 -50.6803 
173 1 -6.233 -45.3053 -52.438 
176 2 -6.20041 -43.5568 -50.6561 
235 1 -4.39472 -41.7566 -50.6656 
233 1 -6.22297 -41.7751 -52.4356 
174 1 -4.41954 -43.5285 -52.4203 
179 2 -0.911859 -45.3135 -50.5957 
180 2 -2.65097 -43.5835 -50.6787 
239 1 -0.945482 -41.7246 -50.6495 
178 1 -0.897327 -43.5536 -52.4071 
237 2 -2.6422 -41.7545 -52.4897 
243 2 -50.6937 -38.1817 -50.6702 
182 2 -50.6556 -39.9647 -52.4501 
184 1 -52.4202 -39.9727 -50.6531 
241 1 -52.4111 -38.1835 -52.4583 
188 1 -48.8981 -39.9391 -50.6477 
247 2 -47.1339 -38.1612 -50.7129 
186 1 -47.0599 -39.9832 -52.4139 
245 1 -48.9154 -38.19 -52.4408 
192 2 -45.3559 -39.9862 -50.6039 
251 2 -43.5526 -38.1974 -50.6715 
190 1 -43.538 -40.0047 -52.3771 
249 1 -45.3126 -38.2219 -52.4008 
196 2 -41.7404 -39.9561 -50.5732 
253 2 -41.7764 -38.2519 -52.3673 
257 2 -38.2246 -38.1583 -52.4375 
200 2 -38.1869 -40.0164 -50.606 
255 1 -39.9497 -38.2264 -50.6402 
194 1 -39.9735 -39.9705 -52.3921 
204 1 -34.6318 -39.9838 -50.6544 
259 1 -36.4878 -38.1728 -50.6307 
198 2 -36.4485 -39.9481 -52.3967 
261 1 -34.65 -38.2195 -52.4437 
208 1 -31.1133 -39.9805 -50.6679 
263 1 -32.8516 -38.22 -50.6346 
202 2 -32.8853 -39.9945 -52.4515 
265 2 -31.1131 -38.2252 -52.4399 
206 2 -29.327 -39.9352 -52.4157 
212 2 -27.5755 -39.984 -50.6523 
267 2 -29.3913 -38.1634 -50.6785 
269 1 -27.5667 -38.215 -52.3985 
271 2 -25.7457 -38.2238 -50.7011 
210 1 -25.7671 -40.0089 -52.4305 
216 2 -23.9681 -40.0008 -50.6447 
273 1 -23.9861 -38.1977 -52.4296 
275 1 -22.2092 -38.2254 -50.6424 
214 1 -22.2279 -40.0084 -52.4294 
220 1 -20.4347 -39.9695 -50.664 
277 2 -20.4833 -38.2185 -52.4491 
279 2 -18.6623 -38.1842 -50.7231 
218 1 -18.6852 -40.0083 -52.4259 
224 2 -16.8834 -39.9797 -50.699 
281 1 -16.8898 -38.2049 -52.4718 
283 1 -15.1265 -38.2043 -50.675 
222 1 -15.1141 -40.0008 -52.4522 
228 1 -13.3089 -39.9971 -50.6605 
287 2 -11.5318 -38.2503 -50.7071 
226 1 -11.5437 -40.0108 -52.4419 
285 2 -13.3315 -38.2459 -52.4024 
232 1 -9.75002 -39.9927 -50.6609 
291 1 -7.91064 -38.1873 -50.655 
230 1 -7.97995 -39.989 -52.475 
289 1 -9.74458 -38.2033 -52.4629 
236 2 -6.23297 -40.018 -50.656 
295 1 -4.49533 -38.2143 -50.6569 
234 2 -4.47283 -39.9899 -52.4343 
293 2 -6.20925 -38.2131 -52.4808 
240 2 -2.68855 -39.9214 -50.6711 
299 1 -0.873084 -38.2212 -50.641 
238 1 -0.881051 -39.994 -52.4245 
297 1 -2.71402 -38.2058 -52.4368 
303 1 -50.6565 -34.6353 -50.6794 
244 1 -52.4056 -36.3957 -50.6781 
301 2 -52.4317 -34.646 -52.4689 
242 2 -50.6347 -36.4015 -52.4433 
248 1 -48.9039 -36.4332 -50.6591 
307 1 -47.1199 -34.5962 -50.6686 
305 1 -48.8664 -34.6187 -52.4554 
246 1 -47.0954 -36.4035 -52.4672 
252 1 -45.322 -36.4134 -50.6769 
311 2 -43.5347 -34.6248 -50.6452 
250 1 -43.5041 -36.4226 -52.4254 
309 1 -45.3093 -34.5908 -52.4431 
256 1 -41.8167 -36.4224 -50.6466 
313 2 -41.7642 -34.6449 -52.4263 
260 2 -38.2731 -36.3902 -50.7185 
315 1 -40.0249 -34.6601 -50.6511 
317 1 -38.1897 -34.6467 -52.4322 
254 1 -40.0425 -36.4568 -52.4436 
258 1 -36.4318 -36.434 -52.3959 
264 2 -34.6139 -36.4696 -50.6474 
319 2 -36.4383 -34.6793 -50.6163 
321 1 -34.663 -34.655 -52.3969 
262 2 -32.8858 -36.4369 -52.4057 
268 1 -31.1301 -36.4275 -50.6187 
323 1 -32.8709 -34.6695 -50.6369 
325 2 -31.1486 -34.6104 -52.4346 
272 2 -27.6188 -36.4051 -50.6913 
327 1 -29.3481 -34.6092 -50.6639 
329 2 -27.5821 -34.6922 -52.4604 
266 1 -29.3887 -36.4135 -52.4317 
331 1 -25.7909 -34.7161 -50.7238 
276 2 -23.9481 -36.4185 -50.6483 
270 2 -25.7845 -36.5001 -52.4748 
333 2 -24.0063 -34.6872 -52.4604 
274 1 -22.2287 -36.4271 -52.4617 
335 2 -22.222 -34.6627 -50.6964 
280 1 -20.4429 -36.4426 -50.6692 
337 2 -20.4604 -34.6713 -52.427 
339 2 -18.6681 -34.6579 -50.7011 
284 1 -16.8969 -36.4091 -50.6948 
278 1 -18.678 -36.4114 -52.4658 
341 2 -16.8811 -34.6071 -52.4522 
343 1 -15.0923 -34.6387 -50.7045 
282 2 -15.1076 -36.451 -52.436 
288 1 -13.2995 -36.4402 -50.6865 
347 2 -11.5697 -34.6123 -50.6816 
286 1 -11.5535 -36.4331 -52.4275 
345 2 -13.3151 -34.6604 -52.4374 
349 2 -9.79194 -34.6714 -52.4183 
292 1 -9.7984 -36.4218 -50.6664 
351 2 -8.00282 -34.6782 -50.6937 
290 1 -7.96752 -36.4178 -52.4444 
294 1 -4.46714 -36.3977 -52.4619 
353 2 -6.22275 -34.6342 -52.4678 
296 2 -6.17705 -36.3767 -50.6578 
355 1 -4.42805 -34.6276 -50.6625 
300 1 -2.66282 -36.4039 -50.641 
359 1 -0.898766 -34.6332 -50.6587 
357 2 -2.65253 -34.6779 -52.4461 
298 1 -0.89234 -36.4168 -52.4508 
304 1 -52.4155 -32.8795 -50.6862 
302 2 -50.6606 -32.8752 -52.4401 
363 1 -50.6545 -31.0692 -50.68 
361 2 -52.4416 -31.0585 -52.426 
308 2 -48.9254 -32.8696 -50.6316 
367 1 -47.1145 -31.1329 -50.6541 
306 2 -47.0932 -32.8448 -52.4258 
365 1 -48.8887 -31.1106 -52.4186 
312 2 -45.3047 -32.8697 -50.6295 
369 1 -45.2767 -31.1235 -52.4135 
371 2 -43.5275 -31.1006 -50.644 
310 2 -43.524 -32.8858 -52.4402 
316 1 -41.766 -32.8527 -50.679 
320 1 -38.2031 -32.8784 -50.6297 
314 2 -39.9472 -32.9035 -52.3964 
373 2 -41.7893 -31.0391 -52.4339 
375 1 -40.0077 -31.119 -50.6433 
377 1 -38.1881 -31.0952 -52.4438 
324 1 -34.6723 -32.8654 -50.6539 
318 2 -36.4463 -32.9156 -52.3936 
379 2 -36.4599 -31.1112 -50.6261 
381 1 -34.7036 -31.1022 -52.4258 
328 1 -31.1225 -32.8725 -50.6537 
322 2 -32.9123 -32.8539 -52.4154 
385 1 -31.1226 -31.0864 -52.4577 
383 2 -32.8632 -31.111 -50.6661 
332 2 -27.5384 -32.9154 -50.7216 
387 1 -29.2894 -31.1171 -50.6754 
389 2 -27.54 -31.0806 -52.4604 
326 2 -29.3517 -32.8545 -52.434 
336 1 -23.9654 -32.9012 -50.7027 
330 1 -25.7805 -32.9021 -52.4648 
391 2 -25.7445 -31.1836 -50.7068 
393 2 -24.0245 -31.0883 -52.4532 
334 2 -22.2206 -32.9236 -52.4505 
340 1 -20.4584 -32.8905 -50.6758 
395 1 -22.2226 -31.1197 -50.7184 
397 2 -20.4016 -31.0846 -52.4184 
338 1 -18.6837 -32.8887 -52.4349 
344 1 -16.9172 -32.8734 -50.6714 
399 1 -18.6636 -31.0421 -50.6395 
401 1 -16.8653 -31.045 -52.4246 
342 1 -15.0585 -32.8606 -52.4559 
348 2 -13.3515 -32.8324 -50.6441 
346 1 -11.5813 -32.8592 -52.4234 
403 1 -15.083 -31.0573 -50.6302 
407 1 -11.5724 -31.0661 -50.6558 
405 2 -13.3452 -31.0602 -52.4234 
352 1 -9.73601 -32.8864 -50.6884 
350 2 -8.00194 -32.879 -52.4781 
411 1 -8.00871 -31.0751 -50.672 
409 2 -9.78729 -31.0717 -52.4065 
356 1 -6.25867 -32.8905 -50.679 
354 1 -4.43871 -32.9044 -52.4642 
415 1 -4.43547 -31.0832 -50.6568 
413 1 -6.25395 -31.066 -52.4292 
360 1 -2.62376 -32.8655 -50.6774 
419 2 -0.873274 -31.0922 -50.6832 
417 1 -2.62196 -31.0564 -52.4506 
358 2 -0.896352 -32.8902 -52.4918 
364 1 -52.4787 -29.3375 -50.6633 
362 2 -50.6421 -29.283 -52.4386 
424 2 -52.4156 -25.838 -50.6485 
423 1 -50.6358 -27.5816 -50.6387 
421 1 -52.4537 -27.5483 -52.461 
422 1 -50.6705 -25.7649 -52.4236 
368 2 -48.8524 -29.342 -50.6641 
366 1 -47.0662 -29.3255 -52.3908 
428 2 -48.8845 -25.7922 -50.6732 
425 1 -48.8356 -27.5592 -52.404 
427 2 -47.0809 -27.5568 -50.6322 
426 2 -47.0811 -25.786 -52.4304 
372 1 -45.264 -29.2978 -50.6162 
370 2 -43.5568 -29.2723 -52.4122 
432 1 -45.344 -25.7596 -50.6682 
429 1 -45.2968 -27.5144 -52.4465 
431 2 -43.5379 -27.4635 -50.6473 
430 1 -43.5569 -25.7504 -52.4573 
376 1 -41.8117 -29.3055 -50.6251 
374 2 -39.9788 -29.3167 -52.3704 
380 1 -38.1926 -29.2853 -50.6593 
436 1 -41.7411 -25.7467 -50.5876 
433 1 -41.7534 -27.5323 -52.4122 
435 2 -39.9983 -27.5418 -50.6185 
440 1 -38.241 -25.7656 -50.6184 
434 2 -40.0039 -25.7261 -52.4006 
437 1 -38.2343 -27.5312 -52.412 
384 2 -34.6723 -29.3022 -50.6734 
378 2 -36.4397 -29.2875 -52.4186 
438 1 -36.4287 -25.7599 -52.4271 
439 2 -36.4372 -27.4836 -50.6499 
444 1 -34.6496 -25.7653 -50.6279 
441 1 -34.6849 -27.5407 -52.4308 
382 1 -32.8688 -29.3373 -52.4187 
388 2 -31.0549 -29.3365 -50.6651 
443 1 -32.8545 -27.5723 -50.6424 
448 1 -31.1019 -25.7707 -50.6689 
445 2 -31.1266 -27.5741 -52.428 
442 2 -32.9198 -25.7969 -52.4079 
386 1 -29.3017 -29.3043 -52.4346 
392 2 -27.5751 -29.3235 -50.6281 
447 1 -29.3278 -27.5388 -50.6841 
452 2 -27.6014 -25.72 -50.6366 
449 2 -27.5058 -27.532 -52.3756 
446 2 -29.2911 -25.7694 -52.4269 
390 1 -25.7778 -29.316 -52.3534 
396 2 -23.9471 -29.3489 -50.6501 
451 2 -25.7401 -27.5091 -50.6304 
450 1 -25.7915 -25.7411 -52.3858 
456 2 -23.9398 -25.7437 -50.6642 
453 1 -23.9881 -27.5277 -52.3951 
400 1 -20.4477 -29.3302 -50.6824 
455 1 -22.2305 -27.5284 -50.7047 
454 2 -22.2394 -25.7148 -52.4669 
460 1 -20.465 -25.7408 -50.6995 
457 1 -20.469 -27.5396 -52.4565 
394 2 -22.2531 -29.3077 -52.4335 
398 2 -18.6573 -29.293 -52.447 
404 2 -16.8675 -29.3271 -50.6391 
459 1 -18.6652 -27.5921 -50.6373 
458 1 -18.669 -25.7266 -52.429 
461 1 -16.8881 -27.5538 -52.4249 
402 2 -15.0826 -29.2903 -52.43 
408 1 -13.3024 -29.2925 -50.6565 
406 2 -11.5691 -29.3171 -52.457 
462 1 -15.1093 -25.7358 -52.4178 
463 1 -15.1226 -27.5505 -50.6672 
467 2 -11.5383 -27.546 -50.6325 
468 2 -13.3491 -25.7924 -50.6629 
465 2 -13.3546 -27.5009 -52.4262 
466 1 -11.5482 -25.7765 -52.4321 
412 1 -9.79542 -29.3142 -50.6564 
410 2 -8.01408 -29.2611 -52.4277 
469 1 -9.81062 -27.5354 -52.4474 
471 1 -8.00106 -27.5228 -50.6524 
472 2 -9.7837 -25.7795 -50.6408 
470 1 -8.05022 -25.7554 -52.4492 
416 1 -6.21558 -29.3167 -50.6498 
414 2 -4.45619 -29.3297 -52.4471 
475 1 -4.43271 -27.5424 -50.6637 
476 2 -6.23027 -25.7846 -50.7175 
474 1 -4.43439 -25.7862 -52.4542 
473 1 -6.22332 -27.552 -52.4563 
420 1 -2.65815 -29.3344 -50.6871 
418 2 -0.838198 -29.2684 -52.4438 
479 1 -0.82624 -27.5386 -50.6762 
480 2 -2.62244 -25.7896 -50.7223 
478 1 -0.839658 -25.761 -52.4662 
477 1 -2.66485 -27.5773 -52.4787 
483 1 -50.6474 -23.9866 -50.6556 
482 1 -50.6894 -22.2091 -52.4192 
484 2 -52.4657 -22.1934 -50.6738 
481 1 -52.4511 -23.9944 -52.4302 
488 2 -48.9341 -22.1328 -50.637 
487 1 -47.1973 -23.9592 -50.7 
486 2 -47.16 -22.1749 -52.4128 
485 2 -48.9467 -23.9782 -52.501 
492 2 -45.3731 -22.2189 -50.6674 
489 1 -45.3722 -23.9383 -52.4798 
490 2 -43.5344 -22.2338 -52.422 
491 1 -43.5486 -23.9467 -50.6435 
493 2 -41.8014 -24.0208 -52.4073 
496 2 -41.7397 -22.2099 -50.5929 
497 2 -38.1916 -24.0484 -52.4231 
495 1 -39.9937 -23.9932 -50.6156 
500 2 -38.2339 -22.233 -50.616 
494 1 -39.9885 -22.2686 -52.3983 
499 1 -36.447 -23.9431 -50.6224 
504 2 -34.5835 -22.2824 -50.6567 
501 1 -34.635 -24.0005 -52.4404 
498 2 -36.3973 -22.2484 -52.4542 
503 1 -32.8441 -24.0242 -50.6512 
508 1 -31.0708 -22.2172 -50.6542 
502 1 -32.8256 -22.1586 -52.4195 
505 2 -31.1062 -23.9861 -52.4166 
507 1 -29.3568 -23.992 -50.644 
512 2 -27.6084 -22.2192 -50.6504 
509 1 -27.5586 -23.982 -52.4222 
506 2 -29.3063 -22.2227 -52.4416 
511 2 -25.8326 -23.956 -50.6122 
510 1 -25.779 -22.2147 -52.4224 
513 2 -24.0608 -23.9598 -52.4035 
516 2 -23.9545 -22.1538 -50.675 
515 1 -22.2272 -23.9545 -50.7004 
520 1 -20.4547 -22.198 -50.6555 
517 2 -20.4311 -23.9419 -52.4489 
514 1 -22.2379 -22.2105 -52.488 
464 1 -16.9132 -25.7241 -50.647 
518 1 -18.6766 -22.1923 -52.4263 
519 2 -18.7147 -23.9907 -50.6441 
524 2 -16.9252 -22.1789 -50.6751 
521 1 -16.8897 -23.9644 -52.3948 
522 1 -15.1205 -22.1915 -52.3804 
523 2 -15.0981 -23.9865 -50.6434 
525 1 -13.354 -23.9754 -52.4174 
526 1 -11.5744 -22.2389 -52.4177 
527 1 -11.5763 -24.0199 -50.6413 
528 1 -13.3638 -22.1711 -50.6017 
529 2 -9.78692 -23.9815 -52.3873 
531 1 -7.9996 -24.0094 -50.6505 
532 1 -9.7905 -22.2273 -50.6206 
530 1 -8.01845 -22.2358 -52.4256 
533 1 -6.22084 -23.9684 -52.4263 
535 1 -4.43964 -23.9824 -50.6691 
536 2 -6.26776 -22.2016 -50.6276 
534 2 -4.4394 -22.2564 -52.4677 
539 1 -0.865449 -23.9759 -50.6598 
540 2 -2.6219 -22.1869 -50.7036 
538 1 -0.82189 -22.2081 -52.449 
537 1 -2.6833 -23.9825 -52.4412 
541 1 -52.447 -20.4005 -52.4292 
543 1 -50.7143 -20.3968 -50.6589 
542 2 -50.6421 -18.6673 -52.4254 
544 2 -52.4765 -18.5899 -50.6696 
545 1 -48.8872 -20.4075 -52.43 
548 1 -48.8604 -18.6315 -50.642 
547 1 -47.1117 -20.4208 -50.656 
546 2 -47.1163 -18.6448 -52.4231 
549 1 -45.3263 -20.4586 -52.4387 
552 1 -45.337 -18.6669 -50.6573 
550 2 -43.544 -18.6829 -52.3837 
551 2 -43.5708 -20.4438 -50.6674 
556 1 -41.7794 -18.6881 -50.6325 
553 1 -41.7875 -20.4584 -52.4116 
554 2 -39.985 -18.6658 -52.3957 
555 1 -39.9786 -20.4564 -50.6552 
560 1 -38.1981 -18.6728 -50.6539 
557 2 -38.2255 -20.4506 -52.4006 
559 1 -36.4033 -20.5299 -50.6648 
564 1 -34.628 -18.7065 -50.6668 
558 1 -36.4131 -18.7037 -52.4247 
561 2 -34.648 -20.4732 -52.4341 
563 2 -32.804 -20.4303 -50.6031 
568 1 -31.062 -18.6504 -50.6684 
562 1 -32.8615 -18.6961 -52.407 
565 2 -31.0192 -20.4281 -52.3954 
567 1 -29.2976 -20.4329 -50.6366 
572 1 -27.5146 -18.6482 -50.6171 
566 2 -29.2271 -18.6539 -52.4135 
569 1 -27.5253 -20.4691 -52.4193 
571 2 -25.7623 -20.4276 -50.651 
576 1 -24.0225 -18.6367 -50.648 
573 1 -24.0261 -20.4378 -52.4738 
570 1 -25.7611 -18.6569 -52.4579 
575 1 -22.2104 -20.4214 -50.6596 
574 1 -22.2118 -18.6584 -52.4866 
580 1 -20.4101 -18.6135 -50.6501 
577 1 -20.4055 -20.405 -52.4984 
578 2 -18.6827 -18.6292 -52.4718 
579 2 -18.7281 -20.418 -50.6508 
581 1 -16.9223 -20.3998 -52.3963 
584 1 -16.9419 -18.6329 -50.6569 
583 2 -15.1388 -20.4025 -50.6341 
582 2 -15.136 -18.6696 -52.3802 
587 2 -11.5414 -20.4639 -50.653 
588 1 -13.334 -18.6527 -50.6409 
585 1 -13.3506 -20.4076 -52.3845 
586 2 -11.6012 -18.6384 -52.4346 
591 1 -8.01244 -20.4558 -50.6246 
592 1 -9.81365 -18.6522 -50.6591 
589 1 -9.82749 -20.4264 -52.4286 
590 2 -8.01717 -18.7378 -52.4324 
595 1 -4.44879 -20.4837 -50.677 
596 1 -6.22621 -18.6728 -50.6721 
594 2 -4.43195 -18.6899 -52.4418 
593 1 -6.19784 -20.4817 -52.4443 
599 1 -0.823552 -20.4481 -50.6671 
600 1 -2.65997 -18.6667 -50.6819 
597 1 -2.68486 -20.4602 -52.4713 
598 2 -0.889189 -18.7054 -52.4594 
602 2 -50.6235 -50.646 -48.8781 
604 2 -52.3993 -50.6452 -47.0648 
601 1 -52.4008 -52.3978 -48.874 
603 1 -50.6648 -52.4326 -47.1015 
605 1 -48.8829 -52.4394 -48.927 
606 1 -47.1046 -50.6331 -48.9162 
608 1 -48.8719 -50.6441 -47.1127 
607 1 -47.0768 -52.417 -47.0823 
610 1 -43.5588 -50.7062 -48.8638 
612 1 -45.3073 -50.6685 -47.1037 
611 2 -43.5831 -52.4508 -47.078 
609 2 -45.3754 -52.4198 -48.9279 
614 1 -39.977 -50.6957 -48.8863 
616 1 -41.7833 -50.7201 -47.1 
615 2 -39.934 -52.3931 -47.0601 
620 2 -38.1943 -50.6276 -47.1067 
617 1 -38.1973 -52.4481 -48.8646 
613 2 -41.7371 -52.4493 -48.8999 
618 1 -36.4584 -50.6359 -48.889 
624 1 -34.6556 -50.6426 -47.1045 
619 1 -36.4482 -52.4567 -47.0904 
621 1 -34.6795 -52.4701 -48.8785 
622 1 -32.8669 -50.6275 -48.9105 
625 2 -31.1377 -52.4309 -48.8569 
628 2 -31.1744 -50.6537 -47.0887 
623 1 -32.9026 -52.451 -47.0903 
626 1 -29.3973 -50.6282 -48.8673 
629 2 -27.6014 -52.356 -48.9398 
627 2 -29.3947 -52.4276 -47.1061 
632 1 -27.5971 -50.6409 -47.1147 
630 1 -25.7744 -50.6588 -48.8923 
631 2 -25.7857 -52.4014 -47.102 
636 1 -23.9557 -50.6724 -47.1033 
633 2 -24.0303 -52.438 -48.859 
634 2 -22.2159 -50.653 -48.8804 
640 1 -20.4543 -50.707 -47.1341 
635 2 -22.2231 -52.4734 -47.0722 
637 2 -20.4268 -52.4216 -48.924 
638 1 -18.6299 -50.6978 -48.8643 
641 2 -16.8395 -52.437 -48.9288 
639 2 -18.6503 -52.4475 -47.0623 
644 1 -16.8395 -50.7233 -47.1126 
643 2 -15.0683 -52.4974 -47.1154 
642 1 -15.0895 -50.6902 -48.8787 
646 2 -11.5618 -50.6991 -48.8829 
647 1 -11.5351 -52.4464 -47.1171 
648 2 -13.3013 -50.6383 -47.1215 
645 1 -13.3282 -52.4327 -48.8705 
650 1 -7.99678 -50.7147 -48.885 
649 2 -9.79149 -52.4772 -48.901 
652 1 -9.78079 -50.6877 -47.1424 
651 1 -8.01241 -52.4528 -47.1007 
654 2 -4.41335 -50.6641 -48.8869 
656 2 -6.2425 -50.6892 -47.1212 
655 1 -4.44879 -52.4571 -47.1344 
653 2 -6.23629 -52.5045 -48.8721 
658 1 -0.896505 -50.6526 -48.8731 
660 1 -2.66895 -50.6922 -47.1312 
659 2 -0.893264 -52.4459 -47.1439 
657 2 -2.6202 -52.4451 -48.9351 
661 1 -52.4475 -48.9282 -48.8631 
662 1 -50.6295 -47.0972 -48.8759 
663 1 -50.6261 -48.8712 -47.1164 
664 1 -52.4492 -47.0726 -47.0825 
665 2 -48.891 -48.8699 -48.91 
666 1 -47.1073 -47.1228 -48.9027 
667 1 -47.1279 -48.8711 -47.133 
668 2 -48.866 -47.0816 -47.0794 
669 2 -45.3118 -48.8993 -48.8817 
670 1 -43.5907 -47.0909 -48.9119 
671 2 -43.5171 -48.8948 -47.1541 
672 1 -45.3076 -47.1284 -47.1206 
731 2 -43.5719 -45.3645 -47.1082 
673 1 -41.772 -48.866 -48.8979 
677 2 -38.2436 -48.8724 -48.9394 
674 2 -40.0228 -47.1012 -48.8893 
675 1 -39.9627 -48.8794 -47.1352 
676 1 -41.7507 -47.0885 -47.0874 
680 1 -38.2404 -47.1078 -47.1277 
735 2 -39.983 -45.3203 -47.1479 
681 2 -34.6668 -48.9063 -48.899 
678 1 -36.4261 -47.1361 -48.9193 
679 1 -36.4442 -48.8778 -47.1421 
684 1 -34.6476 -47.133 -47.1017 
685 2 -31.1287 -48.8495 -48.9185 
682 2 -32.8688 -47.0939 -48.8731 
683 1 -32.8842 -48.8549 -47.1018 
688 1 -31.1129 -47.092 -47.1117 
689 2 -27.5501 -48.9451 -48.9372 
686 1 -29.3019 -47.15 -48.9014 
687 2 -29.4157 -48.8624 -47.1004 
692 2 -27.6062 -47.1841 -47.082 
693 1 -23.966 -48.8752 -48.8568 
690 1 -25.8151 -47.1582 -48.8524 
691 2 -25.7508 -48.9257 -47.1193 
696 2 -23.9956 -47.1019 -47.1187 
697 1 -20.4508 -48.8639 -48.8859 
694 2 -22.2469 -47.0869 -48.875 
757 2 -20.4487 -45.3259 -48.8813 
695 2 -22.157 -48.8837 -47.1082 
700 1 -20.4538 -47.1021 -47.1424 
701 1 -16.8656 -48.877 -48.9092 
698 2 -18.6415 -47.1097 -48.8515 
699 1 -18.6422 -48.8856 -47.105 
704 1 -16.8446 -47.1093 -47.1051 
705 1 -13.3175 -48.899 -48.8925 
702 2 -15.0903 -47.1214 -48.8759 
706 1 -11.4967 -47.0802 -48.8841 
703 1 -15.0766 -48.8865 -47.0815 
707 1 -11.5225 -48.8959 -47.151 
708 1 -13.3243 -47.0862 -47.1184 
709 2 -9.74202 -48.9046 -48.9002 
710 1 -8.01455 -47.0925 -48.8601 
711 1 -7.9977 -48.9123 -47.1054 
712 2 -9.76666 -47.1308 -47.1023 
713 1 -6.17601 -48.8881 -48.876 
714 2 -4.44454 -47.0463 -48.9105 
715 2 -4.46937 -48.9377 -47.1158 
716 1 -6.17986 -47.1061 -47.1171 
717 1 -2.69234 -48.8493 -48.8555 
718 1 -0.89877 -47.1243 -48.8314 
719 2 -0.909083 -48.9172 -47.0825 
720 2 -2.71484 -47.1148 -47.0895 
722 1 -50.6485 -43.5472 -48.8604 
781 1 -52.4508 -41.7533 -48.8623 
723 1 -50.6703 -45.3181 -47.0341 
783 1 -50.6946 -41.756 -47.0914 
724 2 -52.4323 -43.5448 -47.1077 
721 1 -52.4616 -45.308 -48.8693 
725 1 -48.8856 -45.333 -48.8749 
785 1 -48.8291 -41.7566 -48.8607 
726 2 -47.1144 -43.5842 -48.908 
727 1 -47.1127 -45.3211 -47.0961 
728 1 -48.8523 -43.5167 -47.0586 
787 2 -47.0985 -41.7779 -47.062 
729 2 -45.362 -45.3106 -48.8693 
789 1 -45.3718 -41.7708 -48.8534 
730 1 -43.5616 -43.5925 -48.8899 
732 1 -45.3323 -43.5627 -47.0862 
791 2 -43.5752 -41.7914 -47.127 
733 1 -41.7957 -45.3569 -48.9017 
737 1 -38.2334 -45.3299 -48.9013 
793 1 -41.7909 -41.7774 -48.8877 
734 1 -40.0202 -43.502 -48.87 
797 2 -38.1943 -41.8277 -48.8253 
736 1 -41.8024 -43.5726 -47.0797 
740 1 -38.205 -43.5567 -47.0939 
795 2 -40.0335 -41.756 -47.0629 
741 1 -34.629 -45.3116 -48.8843 
738 1 -36.407 -43.5185 -48.841 
801 1 -34.6462 -41.7933 -48.8257 
739 2 -36.4267 -45.3948 -47.1825 
744 2 -34.6405 -43.6177 -47.0646 
799 2 -36.411 -41.7284 -47.05 
745 2 -31.04 -45.3146 -48.9088 
742 2 -32.8669 -43.5259 -48.8382 
805 1 -31.1027 -41.7805 -48.8554 
743 1 -32.8089 -45.3118 -47.114 
748 2 -31.0487 -43.5413 -47.1189 
803 1 -32.8954 -41.7887 -47.0665 
749 2 -27.5459 -45.38 -48.9147 
746 1 -29.2555 -43.5428 -48.8731 
809 2 -27.5282 -41.7067 -48.9075 
747 1 -29.2861 -45.3267 -47.0931 
752 2 -27.5586 -43.521 -47.0787 
807 2 -29.3296 -41.7885 -47.091 
753 1 -23.9996 -45.3099 -48.8483 
750 1 -25.8294 -43.5526 -48.8881 
813 1 -23.9849 -41.8164 -48.9007 
751 1 -25.8317 -45.3521 -47.1 
811 1 -25.7914 -41.7817 -47.0969 
756 2 -24.0387 -43.5489 -47.073 
754 2 -22.199 -43.5471 -48.9106 
817 1 -20.4578 -41.7707 -48.8868 
755 1 -22.2248 -45.2925 -47.132 
815 1 -22.2441 -41.7997 -47.112 
760 2 -20.4135 -43.528 -47.1489 
761 1 -16.8669 -45.3564 -48.8775 
758 1 -18.6678 -43.5694 -48.8949 
821 2 -16.9357 -41.8143 -48.8552 
759 1 -18.7061 -45.3305 -47.0782 
819 1 -18.6545 -41.7741 -47.06 
764 1 -16.8768 -43.5378 -47.0427 
765 2 -13.3503 -45.3477 -48.9135 
762 1 -15.0868 -43.4992 -48.892 
766 2 -11.5123 -43.54 -48.837 
825 2 -13.3123 -41.7171 -48.9011 
763 1 -15.0618 -45.3308 -47.0774 
767 1 -11.4977 -45.3275 -47.1374 
823 1 -15.0966 -41.7493 -47.1068 
768 1 -13.2948 -43.5345 -47.1302 
827 1 -11.5227 -41.762 -47.1198 
769 2 -9.717 -45.2964 -48.917 
770 2 -7.93514 -43.5226 -48.8932 
829 2 -9.72866 -41.7442 -48.8633 
771 2 -7.93628 -45.359 -47.0538 
772 1 -9.68051 -43.5459 -47.1154 
831 2 -7.95799 -41.7246 -47.0619 
773 1 -6.23226 -45.3117 -48.8895 
774 1 -4.39864 -43.5402 -48.8944 
833 2 -6.14103 -41.7918 -48.843 
775 1 -4.42899 -45.3085 -47.0894 
776 1 -6.24613 -43.5326 -47.0635 
835 1 -4.40873 -41.7892 -47.0877 
777 1 -2.66501 -45.3206 -48.8454 
778 1 -0.919818 -43.5414 -48.8533 
837 2 -2.66464 -41.7749 -48.8411 
779 1 -0.891322 -45.3536 -47.0804 
780 2 -2.66114 -43.5508 -47.0437 
839 1 -0.90185 -41.7557 -47.1081 
782 2 -50.6324 -40.0253 -48.8536 
841 1 -52.4042 -38.24 -48.8732 
843 2 -50.6584 -38.1728 -47.0813 
784 2 -52.4564 -39.9615 -47.1009 
845 1 -48.8835 -38.2296 -48.8707 
786 2 -47.0875 -39.9601 -48.8815 
788 1 -48.8563 -39.9698 -47.1143 
847 2 -47.0972 -38.2026 -47.0442 
849 1 -45.3536 -38.1939 -48.891 
790 1 -43.5645 -39.9841 -48.889 
792 1 -45.3302 -39.988 -47.0833 
851 2 -43.5768 -38.1959 -47.1118 
853 1 -41.8286 -38.1728 -48.8605 
794 1 -39.9581 -40.021 -48.8545 
857 2 -38.2107 -38.2305 -48.847 
796 1 -41.8124 -39.9904 -47.0805 
800 1 -38.2272 -40.0276 -47.0951 
855 1 -39.9788 -38.1546 -47.0928 
798 1 -36.4588 -40.0267 -48.8586 
861 1 -34.633 -38.2144 -48.8944 
804 2 -34.6605 -39.9594 -47.1433 
859 1 -36.4364 -38.2214 -47.0931 
802 2 -32.8642 -40.0376 -48.8472 
865 2 -31.0975 -38.2711 -48.8604 
808 1 -31.0626 -39.999 -47.0748 
863 1 -32.8759 -38.2389 -47.1164 
806 1 -29.3154 -39.9918 -48.8939 
869 1 -27.5636 -38.1945 -48.9292 
812 1 -27.5891 -39.9902 -47.0818 
867 2 -29.3498 -38.2038 -47.1012 
810 1 -25.7764 -39.9744 -48.924 
873 1 -23.9775 -38.2156 -48.9225 
871 2 -25.7235 -38.2448 -47.1529 
816 1 -23.9776 -40.0188 -47.1099 
814 2 -22.2284 -40.0337 -48.9106 
877 2 -20.4532 -38.2168 -48.8669 
875 1 -22.2165 -38.2299 -47.1235 
820 1 -20.4693 -39.9828 -47.1229 
818 1 -18.6302 -39.9602 -48.9468 
881 2 -16.8671 -38.1723 -48.8985 
879 1 -18.6548 -38.1997 -47.1447 
824 1 -16.8862 -39.9908 -47.1354 
822 1 -15.1579 -40.0259 -48.9263 
885 1 -13.3087 -38.1696 -48.9235 
883 1 -15.1115 -38.1808 -47.1582 
828 1 -13.3148 -39.9698 -47.1377 
887 1 -11.5046 -38.1865 -47.1355 
826 1 -11.496 -39.9708 -48.8994 
830 1 -7.94643 -40.0072 -48.8834 
889 2 -9.71281 -38.1934 -48.9268 
832 1 -9.737 -39.9664 -47.1073 
891 1 -8.00392 -38.1906 -47.1102 
834 1 -4.43572 -39.9758 -48.906 
893 2 -6.20786 -38.198 -48.826 
836 1 -6.1914 -39.9924 -47.1096 
895 2 -4.43557 -38.2199 -47.1378 
838 2 -0.89986 -39.9967 -48.8801 
897 2 -2.66208 -38.1855 -48.9035 
840 1 -2.65858 -39.9552 -47.1336 
899 1 -0.891524 -38.1906 -47.1198 
842 1 -50.6362 -36.424 -48.8721 
901 2 -52.4012 -34.6478 -48.8916 
903 1 -50.6474 -34.6395 -47.1144 
844 1 -52.4363 -36.4227 -47.1298 
905 2 -48.8626 -34.6655 -48.9034 
846 1 -47.1232 -36.4446 -48.8701 
848 1 -48.8627 -36.4045 -47.0762 
907 2 -47.0882 -34.6555 -47.1182 
909 1 -45.3299 -34.6363 -48.8876 
850 2 -43.6281 -36.4041 -48.8959 
852 1 -45.3452 -36.4345 -47.0493 
856 2 -41.8068 -36.4465 -47.0841 
911 1 -43.5558 -34.6573 -47.0848 
913 1 -41.7941 -34.6804 -48.8475 
854 2 -40.0333 -36.4611 -48.9259 
917 1 -38.2278 -34.7308 -48.8739 
860 2 -38.17 -36.4515 -47.0522 
915 1 -39.9888 -34.7037 -47.1169 
858 2 -36.4144 -36.4495 -48.8227 